# vtk DataFile Version 4.2
vtk output
ASCII
DATASET POLYDATA
POINTS 148 float
0.1 0 0 0.15 0 0 0.15 0.0189494 0 
0.0992115 0.0125333 0 0.15 0.0385135 0 0.0968583 0.024869 0 
0.15 0.0593892 0 0.0929777 0.0368125 0 0.15 0.0824632 0 
0.0876307 0.0481754 0 0.15 0.108981 0 0.0809017 0.0587785 0 
0.15 0.140859 0 0.0728969 0.0684547 0 0.15 0.15 0 
0.124091 0.15 0 0.0637424 0.0770513 0 0.0951929 0.15 0 
0.0535827 0.0844328 0 0.0705846 0.15 0 0.0425779 0.0904827 0 
0.048738 0.15 0 0.0309017 0.0951056 0 0.028614 0.15 0 
0.0187381 0.0982287 0 0.0094372 0.15 0 0.00627905 0.0998027 0 
-0.0094372 0.15 0 -0.00627905 0.0998027 0 -0.028614 0.15 0 
-0.0187381 0.0982287 0 -0.048738 0.15 0 -0.0309017 0.0951056 0 
-0.0705846 0.15 0 -0.0425779 0.0904827 0 -0.0951929 0.15 0 
-0.0535827 0.0844328 0 -0.124091 0.15 0 -0.0637424 0.0770513 0 
-0.15 0.15 0 -0.15 0.140859 0 -0.0728969 0.0684547 0 
-0.15 0.108981 0 -0.0809017 0.0587785 0 -0.15 0.0824632 0 
-0.0876307 0.0481754 0 -0.15 0.0593892 0 -0.0929777 0.0368125 0 
-0.15 0.0385135 0 -0.0968583 0.024869 0 -0.15 0.0189494 0 
-0.0992115 0.0125333 0 -0.15 -4.82437e-17 0 -0.1 -3.21625e-17 0 
-0.15 -0.0189494 0 -0.0992115 -0.0125333 0 -0.15 -0.0385135 0 
-0.0968583 -0.024869 0 -0.15 -0.0593892 0 -0.0929777 -0.0368125 0 
-0.15 -0.0824632 0 -0.0876307 -0.0481754 0 -0.15 -0.108981 0 
-0.0809017 -0.0587785 0 -0.15 -0.140859 0 -0.0728969 -0.0684547 0 
-0.15 -0.15 0 -0.124091 -0.15 0 -0.0637424 -0.0770513 0 
-0.0951929 -0.15 0 -0.0535827 -0.0844328 0 -0.0705846 -0.15 0 
-0.0425779 -0.0904827 0 -0.048738 -0.15 0 -0.0309017 -0.0951056 0 
-0.028614 -0.15 0 -0.0187381 -0.0982287 0 -0.0094372 -0.15 0 
-0.00627905 -0.0998027 0 0.0094372 -0.15 0 0.00627905 -0.0998027 0 
0.028614 -0.15 0 0.0187381 -0.0982287 0 0.048738 -0.15 0 
0.0309017 -0.0951056 0 0.0705846 -0.15 0 0.0425779 -0.0904827 0 
0.0951929 -0.15 0 0.0535827 -0.0844328 0 0.124091 -0.15 0 
0.0637424 -0.0770513 0 0.15 -0.15 0 0.15 -0.140859 0 
0.0728969 -0.0684547 0 0.15 -0.108981 0 0.0809017 -0.0587785 0 
0.15 -0.0824632 0 0.0876307 -0.0481754 0 0.15 -0.0593892 0 
0.0929777 -0.0368125 0 0.15 -0.0385135 0 0.0968583 -0.024869 0 
0.15 -0.0189494 0 0.0992115 -0.0125333 0 -0.15 -0.15 0 
0.15 -0.15 0 0.15 -0.15 0 -0.15 -0.15 0 
0.15 -0.15 0 -0.15 -0.15 0 0.15 -0.15 0 
-0.15 -0.15 0 0.15 -0.15 0 -0.15 -0.15 0 
-0.15 -0.15 0 -0.15 -0.15 0 -0.15 -0.15 0 
-0.15 -0.15 0 -0.15 -0.15 0 -0.15 -0.15 0 
-0.15 -0.15 0 -0.15 -0.15 0 -0.15 -0.15 0 
-0.15 -0.15 0 -0.15 -0.15 0 -0.15 -0.15 0 
0.15 0.15 0 -0.15 0.15 0 -0.15 0.15 0 
0.15 0.15 0 -0.15 0.15 0 0.15 0.15 0 
-0.15 0.15 0 0.15 0.15 0 -0.15 0.15 0 
0.15 0.15 0 0.15 0.15 0 0.15 0.15 0 
0.15 0.15 0 0.15 0.15 0 0.15 0.15 0 
0.15 0.15 0 0.15 0.15 0 0.15 0.15 0 
0.15 0.15 0 0.15 0.15 0 0.15 0.15 0 
0.15 0.15 0 
POLYGONS 166 740
4 0 1 2 3 
4 3 2 4 5 
4 5 4 6 7 
4 7 6 8 9 
4 9 8 10 11 
4 11 10 12 13 
3 14 15 12 
3 12 15 13 
3 16 13 15 
4 16 15 17 18 
4 18 17 19 20 
4 20 19 21 22 
4 22 21 23 24 
4 24 23 25 26 
4 26 25 27 28 
4 28 27 29 30 
4 30 29 31 32 
4 32 31 33 34 
4 34 33 35 36 
4 36 35 37 38 
3 39 40 37 
3 40 41 37 
3 41 38 37 
4 41 40 42 43 
4 43 42 44 45 
4 45 44 46 47 
4 47 46 48 49 
4 49 48 50 51 
4 51 50 52 53 
4 53 52 54 55 
4 55 54 56 57 
4 57 56 58 59 
4 59 58 60 61 
4 61 60 62 63 
4 63 62 64 65 
3 66 67 64 
3 64 67 65 
3 68 65 67 
4 68 67 69 70 
4 70 69 71 72 
4 72 71 73 74 
4 74 73 75 76 
4 76 75 77 78 
4 78 77 79 80 
4 80 79 81 82 
4 82 81 83 84 
4 84 83 85 86 
4 86 85 87 88 
4 88 87 89 90 
3 91 92 89 
3 92 93 89 
3 93 90 89 
4 93 92 94 95 
4 95 94 96 97 
4 97 96 98 99 
4 99 98 100 101 
4 101 100 102 103 
4 103 102 1 0 
4 104 105 106 107 
4 107 106 108 109 
4 109 108 110 111 
4 111 110 112 113 
3 91 89 114 
3 114 113 91 
3 113 112 91 
4 114 89 87 115 
4 115 87 85 116 
4 116 85 83 117 
4 117 83 81 118 
4 118 81 79 119 
4 119 79 77 120 
4 120 77 75 121 
4 121 75 73 122 
4 122 73 71 123 
4 123 71 69 124 
4 124 69 67 125 
3 125 67 66 
4 126 127 128 129 
4 129 128 130 131 
4 131 130 132 133 
4 133 132 134 135 
3 39 37 136 
3 136 135 39 
3 135 134 39 
4 136 37 35 137 
4 137 35 33 138 
4 138 33 31 139 
4 139 31 29 140 
4 140 29 27 141 
4 141 27 25 142 
4 142 25 23 143 
4 143 23 21 144 
4 144 21 19 145 
4 145 19 17 146 
4 146 17 15 147 
3 147 15 14 
3 104 107 127 
3 107 109 127 
3 109 111 127 
3 111 113 127 
3 113 114 127 
3 114 115 127 
3 115 116 127 
3 116 117 127 
3 117 118 127 
3 118 119 127 
3 119 120 127 
3 120 121 127 
3 121 122 127 
3 122 123 127 
3 123 124 127 
3 124 125 127 
3 125 66 127 
3 66 64 127 
3 64 62 127 
3 62 60 127 
3 60 58 127 
3 58 56 127 
3 56 54 127 
3 54 52 127 
3 52 50 127 
3 50 48 127 
3 48 46 127 
3 46 44 127 
3 44 42 127 
3 42 40 127 
3 39 134 40 
3 134 132 40 
3 132 130 40 
3 130 128 40 
3 128 127 40 
3 126 129 105 
3 129 131 105 
3 131 133 105 
3 133 135 105 
3 135 136 105 
3 136 137 105 
3 137 138 105 
3 138 139 105 
3 139 140 105 
3 140 141 105 
3 141 142 105 
3 142 143 105 
3 143 144 105 
3 144 145 105 
3 145 146 105 
3 146 147 105 
3 147 14 105 
3 14 12 105 
3 12 10 105 
3 10 8 105 
3 8 6 105 
3 6 4 105 
3 4 2 105 
3 2 1 105 
3 1 102 105 
3 102 100 105 
3 100 98 105 
3 98 96 105 
3 96 94 105 
3 94 92 105 
3 91 112 92 
3 112 110 92 
3 110 108 92 
3 108 106 92 
3 106 105 92 

CELL_DATA 166
COLOR_SCALARS Colors 3
1 0.388235 0.278431 1 0.388235 0.278431 1 0.388235 0.278431 
1 0.388235 0.278431 1 0.388235 0.278431 
1 0.388235 0.278431 1 0.388235 0.278431 
1 0.388235 0.278431 1 0.388235 0.278431 
1 0.388235 0.278431 1 0.388235 0.278431 
1 0.388235 0.278431 1 0.388235 0.278431 
1 0.388235 0.278431 1 0.388235 0.278431 
1 0.388235 0.278431 1 0.388235 0.278431 
1 0.388235 0.278431 1 0.388235 0.278431 
1 0.388235 0.278431 1 0.388235 0.278431 
1 0.388235 0.278431 1 0.388235 0.278431 
1 0.388235 0.278431 1 0.388235 0.278431 
1 0.388235 0.278431 1 0.388235 0.278431 
1 0.388235 0.278431 1 0.388235 0.278431 
1 0.388235 0.278431 1 0.388235 0.278431 
1 0.388235 0.278431 1 0.388235 0.278431 
1 0.388235 0.278431 1 0.388235 0.278431 
1 0.388235 0.278431 1 0.388235 0.278431 
1 0.388235 0.278431 1 0.388235 0.278431 
1 0.388235 0.278431 1 0.388235 0.278431 
1 0.388235 0.278431 1 0.388235 0.278431 
1 0.388235 0.278431 1 0.388235 0.278431 
1 0.388235 0.278431 1 0.388235 0.278431 
1 0.388235 0.278431 1 0.388235 0.278431 
1 0.388235 0.278431 1 0.388235 0.278431 
1 0.388235 0.278431 1 0.388235 0.278431 
1 0.388235 0.278431 1 0.388235 0.278431 
1 0.388235 0.278431 1 0.388235 0.278431 
1 0.388235 0.278431 0.890196 0.811765 0.341176 
0.890196 0.811765 0.341176 0.890196 0.811765 0.341176 
0.890196 0.811765 0.341176 0.890196 0.811765 0.341176 
0.890196 0.811765 0.341176 0.890196 0.811765 0.341176 
0.890196 0.811765 0.341176 0.890196 0.811765 0.341176 
0.890196 0.811765 0.341176 0.890196 0.811765 0.341176 
0.890196 0.811765 0.341176 0.890196 0.811765 0.341176 
0.890196 0.811765 0.341176 0.890196 0.811765 0.341176 
0.890196 0.811765 0.341176 0.890196 0.811765 0.341176 
0.890196 0.811765 0.341176 0.890196 0.811765 0.341176 
0.890196 0.811765 0.341176 0.890196 0.811765 0.341176 
0.890196 0.811765 0.341176 0.890196 0.811765 0.341176 
0.890196 0.811765 0.341176 0.890196 0.811765 0.341176 
0.890196 0.811765 0.341176 0.890196 0.811765 0.341176 
0.890196 0.811765 0.341176 0.890196 0.811765 0.341176 
0.890196 0.811765 0.341176 0.890196 0.811765 0.341176 
0.890196 0.811765 0.341176 0.890196 0.811765 0.341176 
0.890196 0.811765 0.341176 0.890196 0.811765 0.341176 
0.890196 0.811765 0.341176 0.890196 0.811765 0.341176 
0.890196 0.811765 0.341176 0.956863 0.643137 0.376471 
0.956863 0.643137 0.376471 0.956863 0.643137 0.376471 
0.956863 0.643137 0.376471 0.956863 0.643137 0.376471 
0.956863 0.643137 0.376471 0.956863 0.643137 0.376471 
0.956863 0.643137 0.376471 0.956863 0.643137 0.376471 
0.956863 0.643137 0.376471 0.956863 0.643137 0.376471 
0.956863 0.643137 0.376471 0.956863 0.643137 0.376471 
0.956863 0.643137 0.376471 0.956863 0.643137 0.376471 
0.956863 0.643137 0.376471 0.956863 0.643137 0.376471 
0.956863 0.643137 0.376471 0.956863 0.643137 0.376471 
0.956863 0.643137 0.376471 0.956863 0.643137 0.376471 
0.956863 0.643137 0.376471 0.956863 0.643137 0.376471 
0.956863 0.643137 0.376471 0.956863 0.643137 0.376471 
0.956863 0.643137 0.376471 0.956863 0.643137 0.376471 
0.956863 0.643137 0.376471 0.956863 0.643137 0.376471 
0.956863 0.643137 0.376471 0.956863 0.643137 0.376471 
0.956863 0.643137 0.376471 0.956863 0.643137 0.376471 
0.956863 0.643137 0.376471 0.956863 0.643137 0.376471 
0.890196 0.811765 0.341176 0.890196 0.811765 0.341176 
0.890196 0.811765 0.341176 0.890196 0.811765 0.341176 
0.890196 0.811765 0.341176 0.890196 0.811765 0.341176 
0.890196 0.811765 0.341176 0.890196 0.811765 0.341176 
0.890196 0.811765 0.341176 0.890196 0.811765 0.341176 
0.890196 0.811765 0.341176 0.890196 0.811765 0.341176 
0.890196 0.811765 0.341176 0.890196 0.811765 0.341176 
0.890196 0.811765 0.341176 0.890196 0.811765 0.341176 
0.890196 0.811765 0.341176 0.890196 0.811765 0.341176 
0.890196 0.811765 0.341176 0.890196 0.811765 0.341176 
0.890196 0.811765 0.341176 0.890196 0.811765 0.341176 
0.890196 0.811765 0.341176 0.890196 0.811765 0.341176 
0.890196 0.811765 0.341176 0.890196 0.811765 0.341176 
0.890196 0.811765 0.341176 0.890196 0.811765 0.341176 
0.890196 0.811765 0.341176 0.890196 0.811765 0.341176 
0.890196 0.811765 0.341176 0.890196 0.811765 0.341176 
0.890196 0.811765 0.341176 0.890196 0.811765 0.341176 
0.890196 0.811765 0.341176 
